/*--------------------------------*- C++ -*----------------------------------*\
| =========                 |                                                 |
| \\      /  F ield         | OpenFOAM: The Open Source CFD Toolbox           |
|  \\    /   O peration     | Version:  2.3.x                                 |
|   \\  /    A nd           | Web:      www.OpenFOAM.org                      |
|    \\/     M anipulation  |                                                 |
\*---------------------------------------------------------------------------*/
FoamFile
{
    version     2.0;
    format      ascii;
    class       surfaceScalarField;
    location    "0";
    object      phi;
}
// * * * * * * * * * * * * * * * * * * * * * * * * * * * * * * * * * * * * * //

dimensions      [0 3 -1 0 0 0 0];

internalField   nonuniform List<scalar> 
24124
(
-0.00103639
0.00163254
-0.000598952
-0.00103639
0.00163254
-0.000598952
-0.00103639
0.00163254
-0.000598952
-0.00103639
0.00163254
-0.000598952
-0.00202565
0.00099442
-0.00202565
0.00099442
-0.00202565
0.00099442
-0.00202565
0.00099442
0.00245765
-0.00402071
0.00156265
0.00245765
-0.00402071
0.00156265
0.00245765
-0.00402071
0.00156265
0.00263874
-0.000173426
0.00263874
-0.000173426
0.00263874
-0.000173426
0.000383195
-0.000809603
0.000429969
0.000383195
-0.000809603
0.000429969
0.000383195
-0.000809603
0.000429969
0.000383195
-0.000809603
0.000429969
0.00326848
-0.00422455
0.000956881
0.00326848
-0.00422455
0.000956881
0.00326848
-0.00422455
0.000956881
0.00326848
-0.00422455
0.000956881
-0.00183978
-0.000150827
0.00199113
-0.00183978
-0.000150827
0.00199113
-0.00183978
-0.000150827
0.00199113
-0.00183978
-0.000150827
0.00199113
-0.00222999
0.00250265
-0.000270124
-0.00222999
0.00250265
-0.000270124
-0.00222999
0.00250265
-0.000270124
-0.00222999
0.00250265
-0.000270124
-0.000201867
0.000581782
-0.000201867
0.000581782
-0.000201867
0.000581782
-0.000201867
0.000581782
-0.00123561
0.00150594
-0.000271552
-0.00123561
0.00150594
-0.000271552
-0.00123561
0.00150594
-0.000271552
-0.00123561
0.00150594
-0.000271552
0.000581941
0.00268512
0.000581941
0.00268512
0.000581941
0.00268512
0.000581941
0.00268512
-0.00238962
0.00054851
-0.00238962
0.00054851
-0.00238962
0.00054851
-0.00238962
0.00054851
0.000122327
0.00106003
-0.00118753
0.000122327
0.00106003
-0.00118753
0.000122327
0.00106003
-0.00118753
0.000122327
0.00106003
-0.00118753
-0.000786785
-0.000149678
0.000936898
-0.000786785
-0.000149678
0.000936898
-0.000786785
-0.000149678
0.000936898
-0.000786785
-0.000149678
0.000936898
-0.000496974
-0.00073681
-0.000496974
-0.00073681
-0.000496974
-0.00073681
-0.000496974
-0.00073681
-0.00179309
0.0011272
0.000669834
-0.00179309
0.0011272
0.000669834
-0.00179309
0.0011272
0.000669834
-0.00179309
0.0011272
0.000669834
-0.00139671
-0.000395821
-0.00139671
-0.000395821
-0.00139671
-0.000395821
-0.00139671
-0.000395821
-0.000265524
-0.0019628
-0.000265524
-0.0019628
-0.000265524
-0.0019628
-0.000265524
-0.0019628
0.000117665
-0.000903511
0.000117665
-0.000903511
0.000117665
-0.000903511
0.000117665
-0.000903511
0.0022204
-0.000464525
-0.00175608
0.0022204
-0.000464525
-0.00175608
0.0022204
-0.000464525
-0.00175608
0.0022204
-0.000464525
-0.00175608
-0.000992787
0.00176778
-0.00077513
-0.000992787
0.00176778
-0.00077513
-0.000992787
0.00176778
-0.00077513
-0.000992787
0.00176778
-0.00077513
0.00359968
-0.000895463
-0.00270342
0.00359968
-0.000895463
-0.00270342
0.00359968
-0.000895463
-0.00270342
0.00116927
0.00105042
0.00116927
0.00105042
0.00116927
0.00105042
0.00116927
0.00105042
0.000720426
0.000881596
-0.00159869
0.000720426
0.000881596
-0.00159869
0.000720426
0.000881596
-0.00159869
0.000720426
0.000881596
-0.00159869
-0.00100389
0.0011228
-0.00100389
0.0011228
-0.00100389
0.0011228
-0.00100389
0.0011228
0.00194019
-0.00121983
0.00194019
-0.00121983
0.00194019
-0.00121983
0.00194019
-0.00121983
-0.00115805
0.000929907
0.000230646
-0.00115805
0.000929907
0.000230646
-0.00115805
0.000929907
0.000230646
-0.00115805
0.000929907
0.000230646
0.00115128
0.00245085
0.00115128
0.00245085
0.00115128
0.00245085
-0.00287724
0.000754919
0.00212198
-0.00287724
0.000754919
0.00212198
-0.00287724
0.000754919
0.00212198
-0.00287724
0.000754919
0.00212198
-0.00160765
0.000610756
-0.00160765
0.000610756
-0.00160765
0.000610756
-0.00160765
0.000610756
-0.00303566
0.00015869
-0.00303566
0.00015869
-0.00303566
0.00015869
-0.00303566
0.00015869
-0.000297181
-0.000864986
-0.000297181
-0.000864986
-0.000297181
-0.000864986
-0.000297181
-0.000864986
-0.00281212
-0.00024801
0.00306199
-0.00281212
-0.00024801
0.00306199
-0.00281212
-0.00024801
0.00306199
-0.00281212
-0.00024801
0.00306199
-0.0033337
0.000522405
-0.0033337
0.000522405
-0.0033337
0.000522405
-0.0033337
0.000522405
0.00397385
-0.00176094
-0.00221004
0.00397385
-0.00176094
-0.00221004
0.00397385
-0.00176094
-0.00221004
0.00397385
-0.00176094
-0.00221004
0.00211232
-0.000642296
-0.00146971
0.00211232
-0.000642296
-0.00146971
0.00211232
-0.000642296
-0.00146971
0.00211232
-0.000642296
-0.00146971
0.000761638
0.00135196
0.000761638
0.00135196
0.000761638
0.00135196
0.000761638
0.00135196
0.00178885
-0.00109195
-0.000698973
0.00178885
-0.00109195
-0.000698973
0.00178885
-0.00109195
-0.000698973
0.00178885
-0.00109195
-0.000698973
0.0036796
-0.00127106
-0.00240658
0.00368039
-0.00115418
-0.00252526
0.00368039
-0.00115418
-0.00252526
0.00368039
-0.00115418
-0.00252526
0.00162687
-0.00236211
0.000740678
0.00162687
-0.00236211
0.000740678
0.00162687
-0.00236211
0.000740678
0.00162687
-0.00236211
0.000740678
0.00313676
-0.00150931
0.00313676
-0.00150931
0.00313676
-0.00150931
0.00313676
-0.00150931
0.000434732
-0.000758241
0.000324851
0.000434732
-0.000758241
0.000324851
0.000434732
-0.000758241
0.000324851
0.000434732
-0.000758241
0.000324851
0.00285195
0.000829756
0.00285185
0.000829756
0.00285185
0.000829756
0.00285185
0.000829756
-0.00234074
0.0012339
0.00110271
-0.00234074
0.0012339
0.00110271
-0.00234074
0.0012339
0.00110271
-0.00234074
0.0012339
0.00110271
0.00206809
0.000161957
-0.00223193
0.00206809
0.000161957
-0.00223193
0.00206809
0.000161957
-0.00223193
0.00206809
0.000161957
-0.00223193
-0.0034224
0.00315096
0.00026902
-0.0034224
0.00315096
0.00026902
-0.0034224
0.00315096
0.00026902
-0.002654
-0.00125427
0.00390343
-0.002654
-0.00125427
0.00390343
-0.002654
-0.00125427
0.00390343
0.002654
0.0010158
-0.00366896
-0.00125427
0.00390343
0.00101584
-0.00366896
0.00101584
-0.00366896
0.00101584
-0.00366896
0.00179356
-0.00361646
0.00182313
0.00179356
-0.00361646
0.00182313
0.00179356
-0.00361646
0.00182313
0.00179356
-0.00361646
0.00182313
0.000261946
0.00286985
0.000261946
0.00286985
0.000261946
0.00286985
0.000261946
0.00286985
0.0033243
-0.00140629
-0.00192335
0.0033243
-0.00140629
-0.00192335
0.0033243
-0.00140629
-0.00192335
0.0033243
-0.00140629
-0.00192335
0.00151076
0.00181385
0.00151076
0.00181385
0.00151076
0.00181385
0.00151076
0.00181385
-0.00254955
0.00403745
-0.00148505
-0.00254955
0.00403745
-0.00148505
-0.00254955
0.00403745
-0.00148505
-0.00254955
0.00403745
-0.00148505
-0.00086042
0.00042204
0.000440302
-0.00086042
0.00042204
0.000440302
-0.00086042
0.00042204
0.000440302
-0.00086042
0.00042204
0.000440302
0.00172192
8.76328e-05
-0.00181506
0.00172192
8.76328e-05
-0.00181506
0.00172192
8.76328e-05
-0.00181506
0.00172192
8.76328e-05
-0.00181506
0.00136105
-0.00218897
0.000828759
0.00136105
-0.00218897
0.000828759
0.00136105
-0.00218897
0.000828759
0.00136105
-0.00218897
0.000828759
0.00179662
-0.00043758
0.00179662
-0.00043758
0.00179662
-0.00043758
0.00179662
-0.00043758
-0.000342554
-0.000921357
0.00126349
-0.000342554
-0.000921357
0.00126349
-0.000342554
-0.000921357
0.00126349
-0.000342554
-0.000921357
0.00126349
0.0017792
0.00046918
-0.00224813
0.0017792
0.00046918
-0.00224813
0.0017792
0.00046918
-0.00224813
0.0017792
0.00046918
-0.00224813
-0.00288453
0.000396082
0.00248681
-0.00288453
0.000396082
0.00248681
-0.00288453
0.000396082
0.00248681
-0.00288453
0.000396082
0.00248681
-0.00373687
0.00385201
-0.000112798
-0.00373687
0.00385201
-0.000112798
-0.00373687
0.00385201
-0.000112798
-0.00373687
0.00385201
-0.000112798
0.00182677
-0.000102478
0.00182677
-0.000102478
0.00182677
-0.000102478
0.00182677
-0.000102478
0.00348957
0.000485502
0.00348957
0.000485502
0.00348957
0.000485502
0.00348957
0.000485502
0.000417418
-0.00199748
0.00157892
0.000417418
-0.00199748
0.00157892
0.000417418
-0.00199748
0.00157892
0.000417418
-0.00199748
0.00157892
0.000957222
0.000838301
0.000957222
0.000838301
0.000957222
0.000838301
0.000957222
0.000838301
-0.00242238
0.00162567
0.000795208
-0.00242238
0.00162567
0.000795208
-0.00242238
0.00162567
0.000795208
-0.00242238
0.00162567
0.000795208
0.00390775
-0.00218078
-0.00172707
0.00390775
-0.00218078
-0.00172707
0.00390775
-0.00218078
-0.00172707
0.00390775
-0.00218078
-0.00172707
0.00249499
-0.000520446
-0.00196846
0.00249499
-0.000520446
-0.00196846
0.00249499
-0.000520446
-0.00196846
0.00249499
-0.000520446
-0.00196846
0.00287921
-0.000387711
0.00287921
-0.000387711
0.00287921
-0.000387711
0.00287921
-0.000387711
7.95869e-05
-0.000376897
0.000299241
7.95869e-05
-0.000376897
0.000299241
7.95869e-05
-0.000376897
0.000299241
7.95869e-05
-0.000376897
0.000299241
-0.000588349
0.00163884
-0.00105202
-0.000588349
0.00163884
-0.00105202
-0.000588349
0.00163884
-0.00105202
-0.000588349
0.00163884
-0.00105202
0.00213416
0.00107595
-0.00321256
0.00213416
0.00107595
-0.00321256
0.00213416
0.00107595
-0.00321256
0.00213416
0.00107595
-0.00321256
-0.00191949
0.000422687
0.00150057
-0.00191949
0.000422687
0.00150057
-0.00191949
0.000422687
0.00150057
-0.00191949
0.000422687
0.00150057
-0.00128187
0.000985251
0.000296245
-0.00128187
0.000985251
0.000296245
-0.00128187
0.000985251
0.000296245
-0.00128187
0.000985251
0.000296245
-0.000697474
-0.000583693
-0.000697474
-0.000583693
-0.000697474
-0.000583693
-0.000697474
-0.000583693
0.00227039
-0.00300103
0.000723565
0.00227039
-0.00300103
0.000723565
0.00227039
-0.00300103
0.000723565
0.00227039
-0.00300103
0.000723565
0.00178852
-0.00250616
0.000716404
0.00178852
-0.00250616
0.000716404
0.00178852
-0.00250616
0.000716404
0.00178852
-0.00250616
0.000716404
-7.93973e-05
0.00376995
-0.00369319
-7.93973e-05
0.00376995
-0.00369319
-7.93973e-05
0.00376995
-0.00369319
-7.93973e-05
0.00376995
-0.00369319
-0.000107192
-0.00106956
0.00117781
-0.000107192
-0.00106956
0.00117781
-0.000107192
-0.00106956
0.00117781
-0.000107192
-0.00106956
0.00117781
0.00272647
-0.000784654
-0.00194172
0.00272647
-0.000784654
-0.00194172
0.00272647
-0.000784654
-0.00194172
0.00272647
-0.000784654
-0.00194172
-0.00258275
0.00370399
-0.00112453
-0.00258275
0.00370399
-0.00112453
-0.00258275
0.00370399
-0.00112453
-0.00258275
0.00370399
-0.00112453
-0.000283333
0.00207262
-0.000283333
0.00207262
-0.000283333
0.00207262
-0.000283333
0.00207262
6.03459e-05
0.00343029
-0.00349435
6.03459e-05
0.00343029
-0.00349435
6.03459e-05
0.00343029
-0.00349435
6.03459e-05
0.00343029
-0.00349435
-0.00256613
0.000638519
0.0019267
-0.00256613
0.000638519
0.0019267
-0.00256613
0.000638519
0.0019267
-0.00256613
0.000638519
0.0019267
-0.00377358
0.00109058
0.00267365
-0.00377358
0.00109058
0.00267365
-0.00377358
0.00109058
0.00267365
-0.00377358
0.00109058
0.00267365
-0.00132213
0.00076259
0.000557877
-0.00132213
0.00076259
0.000557877
-0.00132213
0.00076259
0.000557877
-0.00132213
0.00076259
0.000557877
-0.000252218
-0.000737025
0.000990934
-0.000252218
-0.000737025
0.000990934
-0.000252218
-0.000737025
0.000990934
-0.000252218
-0.000737025
0.000990934
0.00182127
-0.00252912
0.000707377
0.00182127
-0.00252912
0.000707377
0.00182127
-0.00252912
0.000707377
0.00182127
-0.00252912
0.000707377
0.00283545
-0.00104891
0.00283545
-0.00104891
0.00283545
-0.00104891
0.00283545
-0.00104891
0.000972286
-0.00179622
0.000822917
0.000972286
-0.00179622
0.000822917
0.000972286
-0.00179622
0.000822917
0.000972286
-0.00179622
0.000822917
-0.000886891
0.00185901
-0.000886891
0.00185901
-0.000886891
0.00185901
-0.000886891
0.00185901
0.000114559
-0.00203526
0.000114559
-0.00203526
0.000114559
-0.00203526
0.000114559
-0.00203526
-0.0046231
0.0026573
0.0019617
-0.0046231
0.0026573
0.0019617
-0.0046231
0.0026573
0.0019617
-0.0046231
0.0026573
0.0019617
-0.000269573
-0.000269573
-0.000269573
-0.000269573
0.00388764
-0.0038247
0.00388764
-0.0038247
0.00388764
-0.0038247
0.00388764
-0.0038247
-0.000375559
0.00045009
-0.000375559
0.00045009
-0.000375559
0.00045009
-0.000375559
0.00045009
-0.00164258
0.000708236
0.000934398
-0.00164258
0.000708236
0.000934398
-0.00164258
0.000708236
0.000934398
-0.00164258
0.000708236
0.000934398
-0.00223755
0.00130547
0.000930912
-0.00223755
0.00130547
0.000930912
-0.00223755
0.00130547
0.000930912
-0.00223755
0.00130547
0.000930912
0.00217074
-0.00407685
0.00190372
0.00217074
-0.00407685
0.00190372
0.00217074
-0.00407685
0.00190372
0.00217074
-0.00407685
0.00190372
-0.00117497
-6.31424e-06
0.00118444
-0.00117497
-6.31424e-06
0.00118444
-0.00117497
-6.31424e-06
0.00118444
-0.00117497
-6.31424e-06
0.00118444
-0.00323886
0.00121089
0.0020218
-0.00323886
0.00121089
0.0020218
-0.00323886
0.00121089
0.0020218
-0.00323886
0.00121089
0.0020218
-0.000416072
-0.00281376
-0.000416072
-0.00281376
-0.000416072
-0.00281376
-0.000416072
-0.00281376
0.00192095
-0.00337965
0.00146087
0.00192095
-0.00337965
0.00146087
0.00192095
-0.00337965
0.00146087
0.00192095
-0.00337965
0.00146087
0.00225623
-0.00246597
0.000209706
0.00225623
-0.00246597
0.000209706
0.00225623
-0.00246597
0.000209706
0.00225623
-0.00246597
0.000209706
0.000576874
0.00167788
0.000576874
0.00167788
0.000576874
0.00167788
0.000576874
0.00167788
-0.00318779
0.00360587
-0.000418746
-0.00318779
0.00360587
-0.000418746
-0.00318779
0.00360587
-0.000418746
-0.00318779
0.00360587
-0.000418746
-0.00137553
0.000203864
-0.00137553
0.000203864
-0.00137553
0.000203864
-0.00137553
0.000203864
-0.00272292
0.000605716
0.00211559
-0.00272292
0.000605716
0.00211559
-0.00272292
0.000605716
0.00211559
-0.00272292
0.000605716
0.00211559
-0.00212834
0.00319048
-0.00105831
-0.00212834
0.00319048
-0.00105831
-0.00212834
0.00319048
-0.00105831
-0.00239717
0.00319167
-0.000787019
0.000629126
-0.00243879
0.00180883
0.000629126
-0.00243879
0.00180883
0.000629126
-0.00243879
0.00180883
0.000629126
-0.00243879
0.00180883
0.00212129
-0.00197879
-0.000144915
0.00212129
-0.00197879
-0.000144915
0.00212129
-0.00197879
-0.000144915
0.00212129
-0.00197879
-0.000144915
0.000304826
0.000304826
0.000304826
0.000304826
-0.00143816
0.00109718
-0.00143816
0.00109718
-0.00143816
0.00109718
-0.00143816
0.00109718
0.0011853
-0.0012925
0.0011853
-0.0012925
0.0011853
-0.0012925
0.0011853
-0.0012925
-0.000855052
0.00191661
-0.00106637
-0.000855052
0.00191661
-0.00106637
-0.000855052
0.00191661
-0.00106637
-0.000855052
0.00191661
-0.00106637
-0.000263936
0.000825029
-0.000565709
-0.000263936
0.000825029
-0.000565709
-0.000263936
0.000825029
-0.000565709
-0.000263936
0.000825029
-0.000565709
0.000631423
-0.000894475
0.000631423
-0.000894475
0.000631423
-0.000894475
0.000631423
-0.000894475
-0.000887789
-0.000734023
0.0016158
-0.000887789
-0.000734023
0.0016158
-0.000887789
-0.000734023
0.0016158
-0.000887789
-0.000734023
0.0016158
-0.00205925
0.00116954
-0.00205925
0.00116954
-0.00205925
0.00116954
-0.00205925
0.00116954
-0.00148465
-0.000158445
-0.00148465
-0.000158445
-0.00148465
-0.000158445
-0.00148465
-0.000158445
0.000598269
-0.0010689
0.000468821
0.000598269
-0.0010689
0.000468821
0.000598269
-0.0010689
0.000468821
0.000598269
-0.0010689
0.000468821
-0.00378265
0.00316249
0.000621791
-0.00378265
0.00316249
0.000621791
-0.00378265
0.00316249
0.000621791
-0.00373158
0.00311184
0.000622043
0.00126586
-0.000743467
-0.000520646
0.00126586
-0.000743467
-0.000520646
0.00126586
-0.000743467
-0.000520646
0.00126586
-0.000743467
-0.000520646
0.000536599
0.000727723
0.000536599
0.000727723
0.000536599
0.000727723
0.000536599
0.000727723
0.000762416
0.00105965
-0.00181763
0.000762416
0.00105965
-0.00181763
0.000762416
0.00105965
-0.00181763
0.000762416
0.00105965
-0.00181763
0.00345054
-0.00193339
-0.00151428
0.00345054
-0.00193339
-0.00151428
0.00345054
-0.00193339
-0.00151428
0.00345054
-0.00193339
-0.00151428
0.000923457
0.00274944
-0.00367449
0.000923457
0.00274944
-0.00367449
0.000923457
0.00274944
-0.00367449
0.000923457
0.00274944
-0.00367449
-0.00213257
0.00305451
-0.00213257
0.00305451
-0.00213257
0.00305451
-0.00213257
0.00305451
-0.00233677
-0.000856227
-0.00233677
-0.000856227
-0.00233677
-0.000856227
-0.00233677
-0.000856227
0.00169618
0.00269047
-0.00438772
0.00169618
0.00269047
-0.00438772
0.00169618
0.00269047
-0.00438772
0.00169618
0.00269047
-0.00438772
0.0036847
-0.00198436
0.0036847
-0.00198436
0.0036847
-0.00198436
0.0036847
-0.00198436
0.000726756
-0.00247802
0.00174823
0.000726756
-0.00247802
0.00174823
0.000726756
-0.00247802
0.00174823
0.000726756
-0.00247802
0.00174823
-0.00254991
-0.00087146
-0.00254991
-0.00087146
-0.00254991
-0.00087146
-0.00028548
0.00342928
-0.00314954
-0.00028548
0.00342928
-0.00314954
-0.00028548
0.00342928
-0.00314954
-0.00028548
0.00342928
-0.00314954
-0.000548762
0.000176219
-0.000548762
0.000176219
-0.000548762
0.000176219
-0.000548762
0.000176219
-0.00287171
0.00015206
-0.00287171
0.00015206
-0.00287171
0.00015206
-0.00287171
0.00015206
-0.000515639
0.00229602
-0.000515639
0.00229602
-0.000515639
0.00229602
-0.000515639
0.00229602
-0.00223406
0.00299437
-0.000762177
-0.00223406
0.00299437
-0.000762177
-0.00223406
0.00299437
-0.000762177
-0.00223406
0.00299437
-0.000762177
0.000410875
-0.00264384
0.000410875
-0.00264384
0.000410875
-0.00264384
0.000410875
-0.00264384
0.00278823
-0.00306921
0.000278617
-0.00272402
-0.00129698
-0.00272402
-0.00129698
-0.00272402
-0.00129698
0.00053236
-0.000528874
-2.72664e-06
0.00053236
-0.000528874
-2.72664e-06
0.00053236
-0.000528874
-2.72664e-06
0.00053236
-0.000528874
-2.72664e-06
0.000571435
-3.87094e-05
0.000571435
-3.87094e-05
0.000571435
-3.87094e-05
0.000571435
-3.87094e-05
0.00308523
-0.0041506
0.00106461
0.00308523
-0.0041506
0.00106461
0.00308523
-0.0041506
0.00106461
0.000212821
0.00287893
0.000212821
0.00287893
0.000212821
0.00287893
0.00308523
-0.0041506
0.00106476
0.000212821
0.00287893
0.00103968
-0.00207153
0.00103294
0.00103968
-0.00207153
0.00103294
0.00103968
-0.00207153
0.00103294
0.00103968
-0.00207153
0.00103294
-0.00423933
0.00351559
-0.00423933
0.00351559
-0.00423933
0.00351559
-0.00423933
0.00351559
-0.000404426
-0.000771876
0.00117611
-0.000404426
-0.000771876
0.00117611
-0.000404426
-0.000771876
0.00117611
-0.000404426
-0.000771876
0.00117611
0.00280135
-0.00213829
-0.000666699
0.00280135
-0.00213829
-0.000666699
0.00280135
-0.00213829
-0.000666699
0.00280135
-0.00213829
-0.000666699
-0.000202061
-0.000333022
-0.000202061
-0.000333022
-0.000202061
-0.000333022
-0.000202061
-0.000333022
0.00162251
-0.00221245
0.00162251
-0.00221245
0.00162251
-0.00221245
0.00162251
-0.00221245
0.00138984
0.000408538
0.00138984
0.000408538
0.00138984
0.000408538
0.00138984
0.000408538
0.000629619
0.000874001
0.000629619
0.000874001
0.000629619
0.000874001
0.000629619
0.000874001
-0.00172178
0.00244654
-0.00172178
0.00244654
-0.00172178
0.00244654
-0.00172178
0.00244654
0.00165227
0.00108755
-0.00273862
0.00165227
0.00108755
-0.00273862
0.00165227
0.00108755
-0.00273862
0.00165227
0.00108755
-0.00273862
-0.00178237
9.24427e-05
0.00169286
-0.00178237
9.24427e-05
0.00169286
-0.00178237
9.24427e-05
0.00169286
-0.00178237
9.24427e-05
0.00169286
-0.000535299
0.000967514
-0.000535299
0.000967514
-0.000535299
0.000967514
-0.000535299
0.000967514
-0.00233992
0.00130395
0.00103271
-0.00233992
0.00130395
0.00103271
-0.00233992
0.00130395
0.00103271
-0.00233992
0.00130395
0.00103271
0.00111619
7.26303e-05
-0.00119469
0.00111619
7.26303e-05
-0.00119469
0.00111619
7.26303e-05
-0.00119469
0.00111619
7.26303e-05
-0.00119469
0.0011404
-1.70638e-05
0.0011404
-1.70638e-05
0.0011404
-1.70638e-05
0.0011404
-1.70638e-05
0.000794641
0.00187721
-0.00266885
0.000794641
0.00187721
-0.00266885
0.000794641
0.00187721
-0.00266885
0.000794641
0.00187721
-0.00266885
-0.00103148
-0.000683019
0.00171462
-0.00103148
-0.000683019
0.00171462
-0.00103148
-0.000683019
0.00171462
-0.00103148
-0.000683019
0.00171462
-0.00361407
0.00104534
0.00256913
-0.00361407
0.00104534
0.00256913
-0.00361407
0.00104534
0.00256913
-0.00361407
0.00104534
0.00256913
0.0024574
0.000336576
0.00137654
-0.00227014
0.000893052
0.00137654
-0.00227014
0.000893052
0.00137654
-0.00227014
0.000893052
0.00137654
-0.00227014
0.000893052
0.00153643
0.000417309
-0.0019522
0.00153643
0.000417309
-0.0019522
0.00153643
0.000417309
-0.0019522
0.00153643
0.000417309
-0.0019522
-0.00341197
0.00241318
0.000998429
-0.00341197
0.00241318
0.000998429
-0.00341197
0.00241318
0.000998429
-0.00341197
0.00241318
0.000998429
-0.000487504
-0.000374018
-0.000487504
-0.000374018
-0.000487504
-0.000374018
-0.000487504
-0.000374018
0.00186014
-0.00335263
0.00149448
0.00186014
-0.00335263
0.00149448
0.00186014
-0.00335263
0.00149448
0.00186014
-0.00335263
0.00149448
-0.00163522
0.00232815
-0.000686435
-0.00163522
0.00232815
-0.000686435
-0.00163522
0.00232815
-0.000686435
-0.00163522
0.00232815
-0.000686435
0.000112962
-9.50836e-05
-1.56027e-05
-0.000538286
0.00033989
-0.000538286
0.00033989
-0.000538286
0.00033989
-0.000538286
0.00033989
0.00410534
-0.00352487
0.00410534
-0.00352487
0.00410534
-0.00352487
0.00410534
-0.00352487
0.000390942
0.00226233
-0.00265743
0.000390942
0.00226233
-0.00265743
0.000390942
0.00226233
-0.00265743
0.000390942
0.00226233
-0.00265743
0.000605745
-0.00171019
0.0011118
0.000605745
-0.00171019
0.0011118
0.000605745
-0.00171019
0.0011118
0.000605745
-0.00171019
0.0011118
0.00028926
0.000161634
0.00028926
0.000161634
0.00028926
0.000161634
0.00028926
0.000161634
0.000495134
-0.000202232
0.000495134
-0.000202232
0.000495134
-0.000202232
0.000495134
-0.000202232
-0.00241526
0.00330796
-0.00089544
-0.00241526
0.00330796
-0.00089544
-0.00241526
0.00330796
-0.00089544
-0.00241526
0.00330796
-0.00089544
-0.00134586
0.00196846
-0.000618546
-0.00134586
0.00196846
-0.000618546
-0.00134586
0.00196846
-0.000618546
-0.00134586
0.00196846
-0.000618546
0.00164501
-0.000986598
-0.000669171
0.00164501
-0.000986598
-0.000669171
0.00164501
-0.000986598
-0.000669171
0.00164501
-0.000986598
-0.000669171
0.00141604
0.000235292
0.00141604
0.000235292
0.00141604
0.000235292
0.00141604
0.000235292
-0.00286419
0.000345564
0.00251771
-0.00286419
0.000345564
0.00251771
-0.00286419
0.000345564
0.00251771
-0.00286419
0.000345564
0.00251771
5.1556e-05
-0.00270038
0.00264783
5.1556e-05
-0.00270038
0.00264783
5.1556e-05
-0.00270038
0.00264783
5.1556e-05
-0.00270038
0.00264783
-0.00188221
0.00193458
-0.00188221
0.00193458
-0.00188221
0.00193458
-0.00188221
0.00193458
-0.000129317
-0.000676184
-0.000129317
-0.000676184
-0.000129317
-0.000676184
-0.000129317
-0.000676184
0.00154095
-0.00295861
0.00141556
0.00154095
-0.00295861
0.00141556
0.00154095
-0.00295861
0.00141556
0.00154095
-0.00295861
0.00141556
0.00027643
0.00027643
0.00027643
0.00027643
-7.63298e-05
6.1421e-05
1.09825e-05
7.04882e-05
-7.6375e-05
7.22542e-06
7.04882e-05
-7.52176e-05
7.22542e-06
-9.93203e-06
-9.93203e-06
-1.76158e-05
-5.85084e-05
-0.00181606
-0.00181606
-0.00181606
-0.00181606
0.00108581
0.00142404
-0.00251433
0.00108581
0.00142404
-0.00251433
0.00108581
0.00142404
-0.00251433
0.00108581
0.00142404
-0.00251433
-0.000952311
-0.00128415
-0.000952311
-0.00128415
-0.000952311
-0.00128415
-0.000952311
-0.00128415
-0.00151073
-0.000378584
0.00188752
-0.00151073
-0.000378584
0.00188752
-0.00151073
-0.000378584
0.00188752
-0.00151073
-0.000378584
0.00188752
0.000380675
-0.00109453
0.000712126
0.000380675
-0.00109453
0.000712126
0.000380675
-0.00109453
0.000712126
0.000380675
-0.00109453
0.000712126
0.00126746
-0.000890668
0.00126746
-0.000890668
0.00126746
-0.000890668
0.00126746
-0.000890668
-0.00319607
0.0010057
0.00218907
-0.00319607
0.0010057
0.00218907
-0.00319607
0.0010057
0.00218907
-0.00319607
0.0010057
0.00218907
-0.00103
-0.00029413
-0.00103
-0.00029413
-0.00103
-0.00029413
-0.00103
-0.00029413
0.00269744
-0.00237891
-0.000325626
0.00269744
-0.00237891
-0.000325626
0.00269744
-0.00237891
-0.000325626
0.00269744
-0.00237891
-0.000325626
0.000454913
-0.00208564
0.000454913
-0.00208564
0.000454913
-0.00208564
0.000454913
-0.00208564
0.00313749
-0.00272023
-0.000409466
0.00313749
-0.00272023
-0.000409466
0.00313749
-0.00272023
-0.000409466
0.00313749
-0.00272023
-0.000409466
-0.000289369
0.00242569
-0.000289369
0.00242569
-0.000289369
0.00242569
-0.000289369
0.00242569
0.00147537
-0.00128891
-0.000181225
0.00147537
-0.00128891
-0.000181225
0.00147537
-0.00128891
-0.000181225
0.00147537
-0.00128891
-0.000181225
0.000677865
-0.00246246
0.0017854
0.000677865
-0.00246246
0.0017854
0.000677865
-0.00246246
0.0017854
0.000677865
-0.00246246
0.0017854
0.0024879
-0.00184388
-0.000646664
0.0024879
-0.00184388
-0.000646664
0.0024879
-0.00184388
-0.000646664
0.0024879
-0.00184388
-0.000646664
-0.00118552
0.00143577
-0.000254972
-0.00118552
0.00143577
-0.000254972
-0.00118552
0.00143577
-0.000254972
-0.00118552
0.00143577
-0.000254972
-0.000424225
-0.000717666
0.00114058
-0.000424225
-0.000717666
0.00114058
-0.000424225
-0.000717666
0.00114058
-0.000424225
-0.000717666
0.00114058
-0.00116738
-0.00116738
-0.00116738
-0.00116738
0.00224957
-0.00157427
0.00224957
-0.00157427
0.00224957
-0.00157427
0.00224957
-0.00157427
0.00212692
-0.00136359
0.00212692
-0.00136359
0.00212692
-0.00136359
0.00212692
-0.00136359
-0.0013748
-0.000966249
-0.0013748
-0.000966249
-0.0013748
-0.000966249
-0.0013748
-0.000966249
-0.00179819
0.00333404
-0.00179819
0.00333404
-0.00179819
0.00333404
-0.00179819
0.00333404
0.000637602
-0.000206285
-0.000429557
0.000637602
-0.000206285
-0.000429557
0.000637602
-0.000206285
-0.000429557
0.000637602
-0.000206285
-0.000429557
0.00288029
-0.00263607
-0.000241245
0.00288029
-0.00263607
-0.000241245
0.00288029
-0.00263607
-0.000241245
0.00288029
-0.00263607
-0.000241245
-0.0033201
-0.000324911
0.00364672
-0.0033201
-0.000324911
0.00364672
-0.0033201
-0.000324911
0.00364672
-0.0033201
-0.000324911
0.00364672
-0.000887155
-0.000701856
0.00158592
-0.000887155
-0.000701856
0.00158592
-0.000887155
-0.000701856
0.00158592
-0.000887155
-0.000701856
0.00158592
-0.00208168
-0.00133872
0.00341781
-0.00208168
-0.00133872
0.00341781
-0.00208168
-0.00133872
0.00341781
-0.00208168
-0.00133872
0.00341781
0.00219259
0.000399468
-0.00259375
0.00219259
0.000399468
-0.00259375
0.00219259
0.000399468
-0.00259375
0.00219259
0.000399468
-0.00259375
6.85978e-05
0.00212539
6.85978e-05
0.00212539
6.85978e-05
0.00212539
6.85978e-05
0.00212539
0.00191278
-0.00330812
0.00139716
0.00191278
-0.00330812
0.00139716
0.00191278
-0.00330812
0.00139716
0.0019107
-0.00330813
0.00139929
-0.00154349
0.00240541
-0.000860921
-0.00154349
0.00240541
-0.000860921
-0.00154349
0.00240541
-0.000860921
-0.00154349
0.00240541
-0.000860921
-0.000170334
0.00224971
-0.00208096
-0.000170334
0.00224971
-0.00208096
-0.000170334
0.00224971
-0.00208096
-0.000170334
0.00224971
-0.00208096
-0.0030316
-0.000287125
-0.0030316
-0.000287125
-0.0030316
-0.000287125
-0.0030316
-0.000287125
0.00075144
0.00075144
0.00075144
0.00075144
0.00250668
-0.000623259
-0.00188384
0.00250668
-0.000623259
-0.00188384
0.00250668
-0.000623259
-0.00188384
0.00250668
-0.000623259
-0.00188384
0.00335792
-0.00345051
9.14686e-05
0.00335792
-0.00345051
9.14686e-05
0.00335792
-0.00345051
9.14686e-05
0.00335792
-0.00345051
9.14686e-05
-0.000408385
0.000270494
0.000138459
-0.000408385
0.000270494
0.000138459
-0.000408385
0.000270494
0.000138459
-0.000408385
0.000270494
0.000138459
-0.00154991
0.00138331
-0.00154991
0.00138331
-0.00154991
0.00138331
-0.00154991
0.00138331
-0.000358581
-0.00222269
-0.00233712
0.00197931
-0.000358581
-0.00222269
-0.000358581
-0.00222269
-0.000358581
-0.00222269
-0.0023357
0.00197931
-0.0023357
0.00197931
-0.0023357
0.00197931
-0.00197747
0.00277045
-0.00197747
0.00277045
-0.00197747
0.00277045
-0.00197747
0.00277045
0.00224748
-0.00274341
0.00049537
0.00224748
-0.00274341
0.00049537
0.00224748
-0.00274341
0.00049537
0.00221663
-0.00274847
0.000531546
0.00177834
-0.0021227
0.000345666
0.00177834
-0.0021227
0.000345666
0.00177834
-0.0021227
0.000345666
0.00177834
-0.0021227
0.000345666
0.00134981
-0.00228255
0.000934088
0.00134981
-0.00228255
0.000934088
0.00134981
-0.00228255
0.000934088
0.00134981
-0.00228255
0.000934088
0.000788878
0.00256824
0.000788878
0.00256824
0.000788878
0.00256824
0.000788878
0.00256824
0.000169084
0.000464768
0.000169084
0.000464768
0.000169084
0.000464768
0.000169084
0.000464768
-0.00195902
0.00145231
0.000502848
-0.00195902
0.00145231
0.000502848
-0.00195902
0.00145231
0.000502848
-0.00195902
0.00145231
0.000502848
0.000749787
-0.00115515
0.000749787
-0.00115515
0.000749787
-0.00115515
0.000749787
-0.00115515
0.000628039
0.00225208
0.000628039
0.00225208
0.000628039
0.00225208
0.000628039
0.00225208
0.000949657
-0.00235281
0.000949657
-0.00235281
0.000949657
-0.00235281
0.000949657
-0.00235281
0.00288358
-0.00193368
0.00288358
-0.00193368
0.00288358
-0.00193368
0.00288358
-0.00193368
-0.00166468
-0.000290841
-0.00166468
-0.000290841
-0.00166468
-0.000290841
-0.00166468
-0.000290841
0.00232044
-0.000945547
0.00232044
-0.000945547
0.00232044
-0.000945547
0.00232044
-0.000945547
-0.00029005
0.00253872
-0.00029005
0.00253872
-0.00029005
0.00253872
-0.000379414
0.00259558
0.00177485
-0.00135535
0.00177485
-0.00135535
0.00177485
-0.00135535
0.00177485
-0.00135535
-0.00105543
-0.00137119
0.00242767
-0.00105543
-0.00137119
0.00242767
-0.00105543
-0.00137119
0.00242767
-0.00105543
-0.00137119
0.00242767
0.000414446
-0.000250388
0.000414446
-0.000250388
0.000414446
-0.000250388
0.000414446
-0.000250388
0.00299746
-0.00111344
-0.00188228
0.00299746
-0.00111344
-0.00188228
0.00299746
-0.00111344
-0.00188228
0.00299746
-0.00111344
-0.00188228
-0.0010589
0.00253379
-0.001479