/*--------------------------------*- C++ -*----------------------------------*\
| =========                 |                                                 |
| \\      /  F ield         | OpenFOAM: The Open Source CFD Toolbox           |
|  \\    /   O peration     | Version:  2.3.x                                 |
|   \\  /    A nd           | Web:      www.OpenFOAM.org                      |
|    \\/     M anipulation  |                                                 |
\*---------------------------------------------------------------------------*/
FoamFile
{
    version     2.0;
    format      ascii;
    class       volVectorField;
    location    "0";
    object      U;
}
// * * * * * * * * * * * * * * * * * * * * * * * * * * * * * * * * * * * * * //

dimensions      [0 1 -1 0 0 0 0];

internalField   nonuniform List<vector> 
16188
(
(-3.40171 -2.43727 0)
(-2.43727 3.40171 0)
(3.40171 2.43727 0)
(2.43727 -3.40171 0)
(-2.4519 3.47128 0)
(3.47128 2.4519 0)
(2.4519 -3.47128 0)
(-3.47128 -2.4519 0)
(-3.98549 4.88981 0)
(4.88981 3.98549 0)
(3.98549 -4.88981 0)
(-4.05986 4.91859 0)
(4.91859 4.05986 0)
(4.05986 -4.91859 0)
(-1.19368 -0.738896 0)
(-0.738896 1.19368 0)
(1.19368 0.738896 0)
(0.738896 -1.19368 0)
(-5.41053 5.84132 0)
(5.84132 5.41053 0)
(5.41053 -5.84132 0)
(-5.84132 -5.41053 0)
(-4.36619 2.33975 0)
(2.33975 4.36619 0)
(4.36619 -2.33975 0)
(-2.33975 -4.36619 0)
(-2.99769 -3.96114 0)
(-3.96114 2.99769 0)
(2.99769 3.96114 0)
(3.96114 -2.99769 0)
(-1.23948 -0.804702 0)
(-0.804702 1.23948 0)
(1.23948 0.804702 0)
(0.804702 -1.23948 0)
(-2.41129 1.08657 0)
(1.08657 2.41129 0)
(2.41129 -1.08657 0)
(-1.08657 -2.41129 0)
(-5.42219 5.76461 0)
(5.76461 5.42219 0)
(5.42219 -5.76461 0)
(-5.76461 -5.42219 0)
(-4.38665 2.41421 0)
(2.41421 4.38665 0)
(4.38665 -2.41421 0)
(-2.41421 -4.38665 0)
(-0.930774 3.35129 0)
(3.35129 0.930774 0)
(0.930774 -3.35129 0)
(-3.35129 -0.930774 0)
(-1.97113 -0.980014 0)
(-0.980014 1.97113 0)
(1.97113 0.980014 0)
(0.980014 -1.97113 0)
(-1.13423 -2.34469 0)
(-2.34469 1.13423 0)
(1.13423 2.34469 0)
(2.34469 -1.13423 0)
(-2.96238 0.344639 0)
(0.344639 2.96238 0)
(2.96238 -0.344639 0)
(-0.344639 -2.96238 0)
(-2.94411 0.41103 0)
(0.41103 2.94411 0)
(2.94411 -0.41103 0)
(-0.41103 -2.94411 0)
(-3.07145 -3.96363 0)
(-3.96363 3.07145 0)
(3.07145 3.96363 0)
(3.96363 -3.07145 0)
(-2.03646 -0.958437 0)
(-0.958437 2.03646 0)
(2.03646 0.958437 0)
(0.958437 -2.03646 0)
(-1.1771 3.29201 0)
(3.29201 1.1771 0)
(1.1771 -3.29201 0)
(-3.29201 -1.1771 0)
(-3.26127 0.733101 0)
(0.733101 3.26127 0)
(3.26127 -0.733101 0)
(-0.733101 -3.26127 0)
(-3.8633 4.64166 0)
(4.64166 3.8633 0)
(3.8633 -4.64166 0)
(-1.23517 3.25213 0)
(3.25213 1.23517 0)
(1.23517 -3.25213 0)
(-3.25213 -1.23517 0)
(-2.94865 2.05546 0)
(2.05546 2.94865 0)
(2.94865 -2.05546 0)
(-2.05546 -2.94865 0)
(-0.924801 3.28376 0)
(3.28376 0.924801 0)
(0.924801 -3.28376 0)
(-3.28376 -0.924801 0)
(-3.02609 2.08611 0)
(2.08611 3.02609 0)
(3.02609 -2.08611 0)
(-2.08611 -3.02609 0)
(-2.04783 -0.13974 0)
(-0.13974 2.04783 0)
(2.04783 0.13974 0)
(0.13974 -2.04783 0)
(-3.90053 4.57506 0)
(4.57506 3.90053 0)
(3.90053 -4.57506 0)
(-1.11319 5.30778 0)
(5.30778 1.11319 0)
(1.11319 -5.30778 0)
(-5.30778 -1.11319 0)
(-3.32349 0.791495 0)
(0.791495 3.32349 0)
(3.32349 -0.791495 0)
(-0.791495 -3.32349 0)
(-1.05612 5.3641 0)
(5.3641 1.05612 0)
(1.05612 -5.3641 0)
(-5.3641 -1.05612 0)
(-2.08327 -0.0753461 0)
(-0.0753461 2.08327 0)
(2.08327 0.0753461 0)
(0.0753461 -2.08327 0)
(-3.11223 -6.04155 0)
(-6.04155 3.11223 0)
(3.11223 6.04155 0)
(6.04155 -3.11223 0)
(-3.13639 -5.96645 0)
(-5.96645 3.13639 0)
(3.13639 5.96645 0)
(5.96645 -3.13639 0)
(-4.89341 5.04672 0)
(5.04672 4.89341 0)
(4.89341 -5.04672 0)
(-5.04672 -4.89341 0)
(-2.5195 -2.32505 0)
(-2.32505 2.5195 0)
(2.5195 2.32505 0)
(2.32505 -2.5195 0)
(-2.47642 -2.40193 0)
(-2.40193 2.47642 0)
(2.47642 2.40193 0)
(2.40193 -2.47642 0)
(-1.88929 -1.85934 0)
(-1.85934 1.88929 0)
(1.88929 1.85934 0)
(1.85934 -1.88929 0)
(-4.35683 -3.72269 0)
(-3.72477 4.35791 0)
(4.35791 3.72477 0)
(3.72477 -4.35791 0)
(-5.61529 -1.50924 0)
(-1.50924 5.61529 0)
(5.61529 1.50924 0)
(1.50924 -5.61529 0)
(-5.67411 -1.55711 0)
(-1.55711 5.67411 0)
(5.67411 1.55711 0)
(1.55711 -5.67411 0)
(-1.93493 -0.452741 0)
(-0.452741 1.93493 0)
(1.93493 0.452741 0)
(0.452741 -1.93493 0)
(-4.2865 -3.75998 0)
(-3.75998 4.2865 0)
(4.2865 3.75998 0)
(3.75998 -4.2865 0)
(-4.347 0.288565 0)
(0.288565 4.347 0)
(4.347 -0.288565 0)
(-0.288565 -4.347 0)
(-4.3003 0.404243 0)
(0.404243 4.3003 0)
(4.3003 -0.404243 0)
(-0.404243 -4.3003 0)
(-4.20277 4.70861 0)
(4.70861 4.20277 0)
(4.20277 -4.70861 0)
(-3.88618 5.4843 0)
(5.4843 3.88618 0)
(3.88618 -5.4843 0)
(-5.45704 -3.79083 0)
(-5.4843 -3.88618 0)
(-3.79083 5.45704 0)
(5.45704 3.79083 0)
(3.79083 -5.45704 0)
(-3.94166 -4.72243 0)
(-4.72243 3.94166 0)
(3.94166 4.72243 0)
(4.72243 -3.94166 0)
(-1.64673 5.67197 0)
(5.67197 1.64673 0)
(1.64673 -5.67197 0)
(-5.67197 -1.64673 0)
(-3.73899 3.60714 0)
(3.60714 3.73899 0)
(3.73899 -3.60714 0)
(-3.60714 -3.73899 0)
(-3.81237 3.54145 0)
(3.54145 3.81237 0)
(3.81237 -3.54145 0)
(-3.54145 -3.81237 0)
(-5.87671 -4.50466 0)
(-4.50466 5.87671 0)
(5.87671 4.50466 0)
(4.50466 -5.87671 0)
(-0.360842 -1.49009 0)
(-1.49009 0.360842 0)
(0.360842 1.49009 0)
(1.49009 -0.360842 0)
(-3.37251 -2.7401 0)
(-2.7401 3.37251 0)
(3.37251 2.7401 0)
(2.7401 -3.37251 0)
(-2.57192 2.48069 0)
(2.48069 2.57192 0)
(2.57192 -2.48069 0)
(-2.48069 -2.57192 0)
(-2.38576 -2.55521 0)
(-2.55521 2.38576 0)
(2.38576 2.55521 0)
(2.55521 -2.38576 0)
(-0.464612 -2.16617 0)
(-2.16617 0.464612 0)
(0.464612 2.16617 0)
(2.16617 -0.464612 0)
(-1.21208 -4.96452 0)
(-4.96452 1.21208 0)
(1.21208 4.96452 0)
(4.96452 -1.21208 0)
(-4.17146 -4.94292 0)
(-4.94292 4.17146 0)
(4.17146 4.94292 0)
(4.94292 -4.17146 0)
(-5.58069 -4.23664 0)
(-4.23664 5.58069 0)
(5.58069 4.23664 0)
(4.23664 -5.58069 0)
(-3.37253 -2.81254 0)
(-2.81254 3.37253 0)
(3.37253 2.81254 0)
(2.81254 -3.37253 0)
(-4.95422 5.02316 0)
(5.02316 4.95422 0)
(4.95422 -5.02316 0)
(-5.02316 -4.95422 0)
(-3.22512 1.48097 0)
(1.48097 3.22512 0)
(3.22512 -1.48097 0)
(-1.48097 -3.22512 0)
(-1.842 -1.91356 0)
(-1.91356 1.842 0)
(1.842 1.91356 0)
(1.91356 -1.842 0)
(-1.53553 4.84731 0)
(4.84731 1.53553 0)
(1.53553 -4.84731 0)
(-4.84731 -1.53553 0)
(-5.98022 -0.627728 0)
(-0.627728 5.98022 0)
(5.98022 0.627728 0)
(0.627728 -5.98022 0)
(-2.36722 3.81781 0)
(3.81781 2.36722 0)
(2.36722 -3.81781 0)
(-3.81781 -2.36722 0)
(-2.46278 3.82203 0)
(3.82203 2.46278 0)
(2.46278 -3.82203 0)
(-3.82203 -2.46278 0)
(-0.462963 -0.555581 0)
(-0.555581 0.462963 0)
(0.462963 0.555581 0)
(0.555581 -0.462963 0)
(-2.73741 2.71955 0)
(2.71955 2.73741 0)
(2.73741 -2.71955 0)
(-2.71955 -2.73741 0)
(-1.61867 -5.61431 0)
(-5.61431 1.61867 0)
(1.61867 5.61431 0)
(5.61431 -1.61867 0)
(-3.06727 -1.22125 0)
(-1.22125 3.06727 0)
(3.06727 1.22125 0)
(1.22125 -3.06727 0)
(-0.896623 -1.6961 0)
(-1.6961 0.896623 0)
(0.896623 1.6961 0)
(1.6961 -0.896623 0)
(-0.956965 -1.64453 0)
(-1.64453 0.956965 0)
(0.956965 1.64453 0)
(1.64453 -0.956965 0)
(-2.69922 -4.37426 0)
(-4.37426 2.69922 0)
(2.69922 4.37426 0)
(4.37426 -2.69922 0)
(-5.00088 0.00840866 0)
(0.00840866 5.00088 0)
(5.00088 -0.00840866 0)
(-0.00840866 -5.00088 0)
(-5.28888 5.34821 0)
(5.34821 5.28888 0)
(5.28888 -5.34821 0)
(-5.34821 -5.28888 0)
(-2.68099 1.82197 0)
(1.82197 2.68099 0)
(2.68099 -1.82197 0)
(-1.82197 -2.68099 0)
(-4.88852 -1.37658 0)
(-1.37658 4.88852 0)
(4.88852 1.37658 0)
(1.37658 -4.88852 0)
(-4.6424 4.78444 0)
(4.78444 4.6424 0)
(4.6424 -4.78444 0)
(-4.78444 -4.6424 0)
(-4.94186 -0.058653 0)
(-0.058653 4.94186 0)
(4.94186 0.058653 0)
(0.058653 -4.94186 0)
(-5.68697 -5.03957 0)
(-5.03957 5.68697 0)
(5.68697 5.03957 0)
(5.03957 -5.68697 0)
(-3.77385 -4.78762 0)
(-4.78762 3.77385 0)
(3.77385 4.78762 0)
(4.78762 -3.77385 0)
(-5.39297 -4.22223 0)
(-4.22223 5.39297 0)
(5.39297 4.22223 0)
(4.22223 -5.39297 0)
(-1.54426 -1.4912 0)
(-1.4912 1.54426 0)
(1.54426 1.4912 0)
(1.4912 -1.54426 0)
(-2.11549 0.160559 0)
(0.160559 2.11549 0)
(2.11549 -0.160559 0)
(-0.160559 -2.11549 0)
(-2.29348 -5.352 0)
(-5.352 2.29348 0)
(2.29348 5.352 0)
(5.352 -2.29348 0)
(-3.8726 -4.67619 0)
(-4.67619 3.8726 0)
(3.8726 4.67619 0)
(4.67619 -3.8726 0)
(-3.35497 0.955737 0)
(0.955737 3.35497 0)
(3.35497 -0.955737 0)
(-0.955737 -3.35497 0)
(-3.44583 0.925612 0)
(0.925612 3.44583 0)
(3.44583 -0.925612 0)
(-0.925612 -3.44583 0)
(-3.04471 -1.13603 0)
(-1.13603 3.04471 0)
(3.04471 1.13603 0)
(1.13603 -3.04471 0)
(-6.04172 4.74383 0)
(4.74383 6.04172 0)
(6.04172 -4.74383 0)
(-4.74383 -6.04172 0)
(-4.36446 0.362075 0)
(0.362075 4.36446 0)
(4.36446 -0.362075 0)
(-0.362075 -4.36446 0)
(-5.61167 -4.9714 0)
(-4.9714 5.61167 0)
(5.61167 4.9714 0)
(4.9714 -5.61167 0)
(-0.501871 -0.653714 0)
(-0.653714 0.501871 0)
(0.501871 0.653714 0)
(0.653714 -0.501871 0)
(-4.10729 1.03997 0)
(1.03997 4.10729 0)
(4.10729 -1.03997 0)
(-1.03997 -4.10729 0)
(-0.719433 4.49107 0)
(4.49107 0.719433 0)
(0.719433 -4.49107 0)
(-4.49107 -0.719433 0)
(-4.17296 -5.47827 0)
(-5.47827 4.17296 0)
(4.17296 5.47827 0)
(5.47827 -4.17296 0)
(-2.74082 -0.00226798 0)
(-0.00226798 2.74082 0)
(2.74082 0.00226798 0)
(0.00226798 -2.74082 0)
(-4.79628 0.0602694 0)
(0.0602694 4.79628 0)
(4.79628 -0.0602694 0)
(-0.0602694 -4.79628 0)
(-4.82983 0.126007 0)
(0.126007 4.82983 0)
(4.82983 -0.126007 0)
(-0.126007 -4.82983 0)
(-3.69821 -3.92777 0)
(-3.92777 3.69821 0)
(3.69821 3.92777 0)
(3.92777 -3.69821 0)
(-2.93948 -3.71876 0)
(-3.71876 2.93948 0)
(2.93948 3.71876 0)
(3.71876 -2.93948 0)
(-2.85406 -3.73216 0)
(-3.73216 2.85406 0)
(2.85406 3.73216 0)
(3.73216 -2.85406 0)
(-4.2281 3.82407 0)
(3.82407 4.2281 0)
(4.2281 -3.82407 0)
(-3.82407 -4.2281 0)
(-2.79282 0.0606035 0)
(0.0606035 2.79282 0)
(2.79282 -0.0606035 0)
(-0.0606035 -2.79282 0)
(-4.68542 2.95853 0)
(2.95853 4.68542 0)
(4.68542 -2.95853 0)
(-2.95853 -4.68542 0)
(-4.31127 4.4221 0)
(4.4221 4.31127 0)
(4.31127 -4.4221 0)
(-4.42591 -4.31389 0)
(-4.00798 2.60238 0)
(2.60238 4.00798 0)
(4.00798 -2.60238 0)
(-2.60238 -4.00798 0)
(-0.968947 4.46108 0)
(4.46108 0.968947 0)
(0.968947 -4.46108 0)
(-4.46108 -0.968947 0)
(-4.8366 -1.43438 0)
(-1.43438 4.8366 0)
(4.8366 1.43438 0)
(1.43438 -4.8366 0)
(-2.26634 0.515702 0)
(0.515702 2.26634 0)
(2.26634 -0.515702 0)
(-0.515702 -2.26634 0)
(-2.73427 1.87757 0)
(1.87757 2.73427 0)
(2.73427 -1.87757 0)
(-1.87757 -2.73427 0)
(-1.10111 -4.42586 0)
(-4.42586 1.10111 0)
(1.10111 4.42586 0)
(4.42586 -1.10111 0)
(-1.32502 0.57681 0)
(0.57681 1.32502 0)
(1.32502 -0.57681 0)
(-0.57681 -1.32502 0)
(-0.636376 -1.41003 0)
(-1.41003 0.636376 0)
(0.636376 1.41003 0)
(1.41003 -0.636376 0)
(-3.57378 0.0811611 0)
(0.0811611 3.57378 0)
(3.57378 -0.0811611 0)
(-0.0811611 -3.57378 0)
(-3.65369 0.116687 0)
(0.116687 3.65369 0)
(3.65369 -0.116687 0)
(-0.116687 -3.65369 0)
(-4.0692 1.10932 0)
(1.10932 4.0692 0)
(4.0692 -1.10932 0)
(-1.10932 -4.0692 0)
(-1.88469 0.194095 0)
(0.194095 1.88469 0)
(1.88469 -0.194095 0)
(-0.194095 -1.88469 0)
(-3.89894 5.26143 0)
(5.26143 3.89894 0)
(3.89894 -5.26143 0)
(-5.26278 -3.8985 0)
(-2.14656 -0.547187 0)
(-0.547187 2.14656 0)
(2.14656 0.547187 0)
(0.547187 -2.14656 0)
(-2.12149 -0.639131 0)
(-0.639131 2.12149 0)
(2.12149 0.639131 0)
(0.639131 -2.12149 0)
(-3.70432 -0.697528 0)
(-0.697528 3.70432 0)
(3.70432 0.697528 0)
(0.697528 -3.70432 0)
(-5.26931 0.985159 0)
(0.985159 5.26931 0)
(5.26931 -0.985159 0)
(-0.985159 -5.26931 0)
(-5.56829 5.28906 0)
(5.28906 5.56829 0)
(5.56829 -5.28906 0)
(-5.28906 -5.56829 0)
(-5.63441 5.33382 0)
(5.33382 5.63441 0)
(5.63441 -5.33382 0)
(-5.33382 -5.63441 0)
(-4.21859 3.90914 0)
(3.90914 4.21859 0)
(4.21859 -3.90914 0)
(-3.90914 -4.21859 0)
(-5.13586 -5.85615 0)
(-5.85615 5.13586 0)
(5.13586 5.85615 0)
(5.85615 -5.13586 0)
(-5.17277 -5.93712 0)
(-5.93712 5.17277 0)
(5.17277 5.93712 0)
(5.93712 -5.17277 0)
(-2.66269 -4.80853 0)
(-4.80853 2.66269 0)
(2.66269 4.80853 0)
(4.80853 -2.66269 0)
(-4.14613 4.77168 0)
(4.77168 4.14613 0)
(4.14613 -4.77168 0)
(-2.03019 -5.66872 0)
(-5.66872 2.03019 0)
(2.03019 5.66872 0)
(5.66872 -2.03019 0)
(-0.582817 -0.685542 0)
(-0.685542 0.582817 0)
(0.582817 0.685542 0)
(0.685542 -0.582817 0)
(-4.68387 3.04004 0)
(3.04004 4.68387 0)
(4.68387 -3.04004 0)
(-3.04004 -4.68387 0)
(-1.17552 -5.03108 0)
(-5.03108 1.17552 0)
(1.17552 5.03108 0)
(5.03108 -1.17552 0)
(-1.77186 5.18563 0)
(5.18563 1.77186 0)
(1.77186 -5.18563 0)
(-5.18563 -1.77186 0)
(-1.68631 5.14508 0)
(5.14508 1.68631 0)
(1.68631 -5.14508 0)
(-5.14508 -1.68631 0)
(-4.9768 -3.9207 0)
(-3.9036 4.94976 0)
(4.94976 3.9036 0)
(3.9036 -4.94976 0)
(-0.981042 0.359037 0)
(0.359037 0.981042 0)
(0.981042 -0.359037 0)
(-0.359037 -0.981042 0)
(-1.05595 0.310075 0)
(0.310075 1.05595 0)
(1.05595 -0.310075 0)
(-0.310075 -1.05595 0)
(-4.27753 5.17343 0)
(5.17343 4.27753 0)
(4.27753 -5.17343 0)
(-4.35748 5.18652 0)
(5.18652 4.35748 0)
(4.35748 -5.18652 0)
(-5.17343 -4.27753 0)
(-5.18652 -4.35748 0)
(-2.32018 3.01548 0)
(3.01548 2.32018 0)
(2.32018 -3.01548 0)
(-3.01548 -2.32018 0)
(-1.42923 -6.21838 0)
(-6.21838 1.42923 0)
(1.42923 6.21838 0)
(6.21838 -1.42923 0)
(-2.60691 0.835898 0)
(0.835898 2.60691 0)
(2.60691 -0.835898 0)
(-0.835898 -2.60691 0)
(-4.33538 3.29384 0)
(3.29384 4.33538 0)
(4.33538 -3.29384 0)
(-3.29384 -4.33538 0)
(-0.973592 0.461963 0)
(0.461963 0.973592 0)
(0.973592 -0.461963 0)
(-0.461963 -0.973592 0)
(-2.66236 -2.66754 0)
(-2.66754 2.66236 0)
(2.66236 2.66754 0)
(2.66754 -2.66236 0)
(-2.31724 -2.61605 0)
(-2.61605 2.31724 0)
(2.31724 2.61605 0)
(2.61605 -2.31724 0)
(-2.42259 0.998825 0)
(0.998825 2.42259 0)
(2.42259 -0.998825 0)
(-0.998825 -2.42259 0)
(-2.59293 -4.75488 0)
(-4.75488 2.59293 0)
(2.59293 4.75488 0)
(4.75488 -2.59293 0)
(-3.44236 -4.01147 0)
(-4.01147 3.44236 0)
(3.44236 4.01147 0)
(4.01147 -3.44236 0)
(-2.93843 1.36917 0)
(1.36917 2.93843 0)
(2.93843 -1.36917 0)
(-1.36917 -2.93843 0)
(-1.99186 -0.500901 0)
(-0.500901 1.99186 0)
(1.99186 0.500901 0)
(0.500901 -1.99186 0)
(-3.66593 -0.144966 0)
(-0.144966 3.66593 0)
(3.66593 0.144966 0)
(0.144966 -3.66593 0)
(-0.804522 -1.85575 0)
(-1.85575 0.804522 0)
(0.804522 1.85575 0)
(1.85575 -0.804522 0)
(-0.757901 -1.94183 0)
(-1.94183 0.757901 0)
(0.757901 1.94183 0)
(1.94183 -0.757901 0)
(-5.8637 -2.20644 0)
(-2.20644 5.8637 0)
(5.8637 2.20644 0)
(2.20644 -5.8637 0)
(-2.97019 1.19304 0)
(1.19304 2.97019 0)
(2.97019 -1.19304 0)
(-1.19304 -2.97019 0)
(-4.55319 -5.73318 0)
(-5.73318 4.55319 0)
(4.55319 5.73318 0)
(5.73318 -4.55319 0)
(-4.95301 -4.02265 0)
(-1.42229 -4.43295 0)
(-4.43295 1.42229 0)
(1.42229 4.43295 0)
(4.43295 -1.42229 0)
(-5.19365 1.80232 0)
(1.80232 5.19365 0)
(5.19365 -1.80232 0)
(-1.80232 -5.19365 0)
(-3.40736 -4.1753 0)
(-4.1753 3.40736 0)
(3.40736 4.1753 0)
(4.1753 -3.40736 0)
(-0.450207 -1.46197 0)
(-1.46197 0.450207 0)
(0.450207 1.46197 0)
(1.46197 -0.450207 0)
(-5.63298 2.94433 0)
(2.94433 5.63298 0)
(5.63298 -2.94433 0)
(-2.94433 -5.63298 0)
(-4.16004 0.464938 0)
(0.464938 4.16004 0)
(4.16004 -0.464938 0)
(-0.464938 -4.16004 0)
(-0.012836 -0.207275 0)
(-1.04427 0.502815 0)
(0.502815 1.04427 0)
(1.04427 -0.502815 0)
(-0.502815 -1.04427 0)
(-5.3592 5.69967 0)
(5.69967 5.3592 0)
(5.3592 -5.69967 0)
(-5.69967 -5.3592 0)
(-2.3348 -4.67218 0)
(-4.67218 2.3348 0)
(2.3348 4.67218 0)
(4.67218 -2.3348 0)
(-3.6044 0.469667 0)
(0.469667 3.6044 0)
(3.6044 -0.469667 0)
(-0.469667 -3.6044 0)
(-0.422673 -0.720216 0)
(-0.720216 0.422673 0)
(0.422673 0.720216 0)
(0.720216 -0.422673 0)
(-0.811442 0.419676 0)
(0.419676 0.811442 0)
(0.811442 -0.419676 0)
(-0.419676 -0.811442 0)
(-4.91905 -2.6059 0)
(-2.6059 4.91905 0)
(4.91905 2.6059 0)
(2.6059 -4.91905 0)
(-1.21014 3.46603 0)
(3.46603 1.21014 0)
(1.21014 -3.46603 0)
(-3.46603 -1.21014 0)
(-1.7295 -2.02595 0)
(-2.02595 1.7295 0)
(1.7295 2.02595 0)
(2.02595 -1.7295 0)
(-1.65586 -2.06474 0)
(-2.06474 1.65586 0)
(1.65586 2.06474 0)
(2.06474 -1.65586 0)
(-5.75218 0.0979796 0)
(0.0979796 5.75218 0)
(5.75218 -0.0979796 0)
(-0.0979796 -5.75218 0)
(-4.85675 2.13417 0)
(2.13417 4.85675 0)
(4.85675 -2.13417 0)
(-2.13417 -4.85675 0)
(-4.94101 2.16579 0)
(2.16579 4.94101 0)
(4.94101 -2.16579 0)
(-2.16579 -4.94101 0)
(-1.22498 -0.638269 0)
(-0.638269 1.22498 0)
(1.22498 0.638269 0)
(0.638269 -1.22498 0)
(-0.860685 4.8482 0)
(4.8482 0.860685 0)
(0.860685 -4.8482 0)
(-4.8482 -0.860685 0)
(-3.8019 -4.71678 0)
(-4.71678 3.8019 0)
(3.8019 4.71678 0)
(4.71678 -3.8019 0)
(-0.095948 -0.0747863 0)
(-0.0782745 0.0948939 0)
(0.0948939 0.0782745 0)
(-0.124654 0.00840351 0)
(0.00840351 0.124654 0)
(0.120554 -0.00647876 0)
(-1.16635 3.40713 0)
(3.40713 1.16635 0)
(1.16635 -3.40713 0)
(-3.40713 -1.16635 0)
(-1.92327 5.27938 0)
(5.27938 1.92327 0)
(1.92327 -5.27938 0)
(-5.27938 -1.92327 0)
(-4.51275 -0.628762 0)
(-0.628762 4.51275 0)
(4.51275 0.628762 0)
(0.628762 -4.51275 0)
(-1.87667 -3.49073 0)
(-3.49073 1.87667 0)
(1.87667 3.49073 0)
(3.49073 -1.87667 0)
(-2.34039 0.182223 0)
(0.182223 2.34039 0)
(2.34039 -0.182223 0)
(-0.182223 -2.34039 0)
(-2.42876 0.162278 0)
(0.162278 2.42876 0)
(2.42876 -0.162278 0)
(-0.162278 -2.42876 0)
(-0.247151 -6.19178 0)
(-6.19178 0.247151 0)
(0.247151 6.19178 0)
(6.19178 -0.247151 0)
(-1.60796 -1.44192 0)
(-1.44192 1.60796 0)
(1.60796 1.44192 0)
(1.44192 -1.60796 0)
(-3.7934 2.41048 0)
(2.41048 3.7934 0)
(3.7934 -2.41048 0)
(-2.41048 -3.7934 0)
(-4.08501 0.50341 0)
(0.50341 4.08501 0)
(4.08501 -0.50341 0)
(-0.50341 -4.08501 0)
(-4.68947 0.280045 0)
(0.280045 4.68947 0)
(4.68947 -0.280045 0)
(-0.280045 -4.68947 0)
(-1.56159 -5.56498 0)
(-5.56498 1.56159 0)
(1.56159 5.56498 0)
(5.56498 -1.56159 0)
(-1.69619 -2.23673 0)
(-2.23673 1.69619 0)
(1.69619 2.23673 0)
(2.23673 -1.69619 0)
(-1.47186 3.98541 0)
(3.98541 1.47186 0)
(1.47186 -3.98541 0)
(-3.98541 -1.47186 0)
(-3.9475 -0.927842 0)
(-0.927842 3.9475 0)
(3.9475 0.927842 0)
(0.927842 -3.9475 0)
(-2.48919 -0.196338 0)
(-0.196338 2.48919 0)
(2.48919 0.196338 0)
(0.196338 -2.48919 0)
(-2.31536 -0.541419 0)
(-0.541419 2.31536 0)
(2.31536 0.541419 0)
(0.541419 -2.31536 0)
(-2.23822 -0.499733 0)
(-0.499733 2.23822 0)
(2.23822 0.499733 0)
(0.499733 -2.23822 0)
(-1.5159 4.07406 0)
(4.07406 1.5159 0)
(1.5159 -4.07406 0)
(-4.07406 -1.5159 0)
(-3.78676 -0.730862 0)
(-0.730862 3.78676 0)
(3.78676 0.730862 0)
(0.730862 -3.78676 0)
(-3.65867 -0.0593031 0)
(-0.0593031 3.65867 0)
(3.65867 0.0593031 0)
(0.0593031 -3.65867 0)
(-5.27576 1.78136 0)
(1.78136 5.27576 0)
(5.27576 -1.78136 0)
(-1.78136 -5.27576 0)
(-0.780922 -0.724929 0)
(-0.724929 0.780922 0)
(0.780922 0.724929 0)
(0.724929 -0.780922 0)
(-5.03895 -2.1346 0)
(-2.1346 5.03895 0)
(5.03895 2.1346 0)
(2.1346 -5.03895 0)
(-5.99541 -4.31119 0)
(-4.31119 5.99541 0)
(5.99541 4.31119 0)
(4.31119 -5.99541 0)
(-3.26062 -2.53964 0)
(-2.53964 3.26062 0)
(3.26062 2.53964 0)
(2.53964 -3.26062 0)
(-1.48981 5.04573 0)
(5.04573 1.48981 0)
(1.48981 -5.04573 0)
(-5.04573 -1.48981 0)
(-4.2908 -0.970936 0)
(-0.970936 4.2908 0)
(4.2908 0.970936 0)
(0.970936 -4.2908 0)
(-4.21595 -1.02522 0)
(-1.02522 4.21595 0)
(4.21595 1.02522 0)
(1.02522 -4.21595 0)
(-3.54751 5.37874 0)
(5.37874 3.54751 0)
(3.54751 -5.37874 0)
(-5.37876 -3.54754 0)
(-4.36788 -3.42373 0)
(-3.42373 4.36788 0)
(4.36788 3.42373 0)
(3.42373 -4.36788 0)
(-4.17188 -1.17868 0)
(-1.17868 4.17188 0)
(4.17188 1.17868 0)
(1.17868 -4.17188 0)
(-5.98741 -4.24023 0)
(-4.24023 5.98741 0)
(5.98741 4.24023 0)
(4.24023 -5.98741 0)
(-3.34087 -2.53197 0)
(-2.53197 3.34087 0)
(3.34087 2.53197 0)
(2.53197 -3.34087 0)
(-1.74238 3.8514 0)
(3.8514 1.74238 0)
(1.74238 -3.8514 0)
(-3.8514 -1.74238 0)
(-5.68883 -2.123 0)
(-2.123 5.68883 0)
(5.68883 2.123 0)
(2.123 -5.68883 0)
(-0.901463 -0.116391 0)
(-0.116391 0.901463 0)
(0.901463 0.116391 0)
(0.116391 -0.901463 0)
(-4.08709 -1.15367 0)
(-1.15367 4.08709 0)
(4.08709 1.15367 0)
(1.15367 -4.08709 0)
(-4.80853 -4.54098 0)
(-4.76264 -4.48381 0)
(-4.54098 4.80853 0)
(4.80853 4.54098 0)
(4.54098 -4.80853 0)
(-4.48381 4.76264 0)
(4.76264 4.48381 0)
(4.48381 -4.76264 0)
(-5.92484 -2.26297 0)
(-2.26297 5.92484 0)
(5.92484 2.26297 0)
(2.26297 -5.92484 0)
(-3.55979 5.07808 0)
(5.07808 3.55979 0)
(3.55979 -5.07808 0)
(-5.07735 -3.562 0)
(-4.20016 -0.471632 0)
(-0.471632 4.20016 0)
(4.20016 0.471632 0)
(0.471632 -4.20016 0)
(-4.66542 2.80396 0)
(2.80396 4.66542 0)
(4.66542 -2.80396 0)
(-2.80396 -4.66542 0)
(-5.71047 -2.19491 0)
(-2.19491 5.71047 0)
(5.71047 2.19491 0)
(2.19491 -5.71047 0)
(-0.746447 -0.795843 0)
(-0.795843 0.746447 0)
(0.746447 0.795843 0)
(0.795843 -0.746447 0)
(-2.98596 0.881076 0)
(0.881076 2.98596 0)
(2.98596 -0.881076 0)
(-0.881076 -2.98596 0)
(-2.66586 0.889932 0)
(0.889932 2.66586 0)
(2.66586 -0.889932 0)
(-0.889932 -2.66586 0)
(-4.97157 -2.19304 0)
(-2.19304 4.97157 0)
(4.97157 2.19304 0)
(2.19304 -4.97157 0)
(-3.58519 -3.6388 0)
(-3.6388 3.58519 0)
(3.58519 3.6388 0)
(3.6388 -3.58519 0)
(-3.58671 3.51152 0)
(3.51152 3.58671 0)
(3.58671 -3.51152 0)
(-3.51152 -3.58671 0)
(-3.00259 0.959116 0)
(0.959116 3.00259 0)
(3.00259 -0.959116 0)
(-0.959116 -3.00259 0)
(-1.35856 -4.37675 0)
(-4.37675 1.35856 0)
(1.35856 4.37675 0)
(4.37675 -1.35856 0)
(-3.63859 5.08482 0)
(5.08482 3.63859 0)
(3.63859 -5.08482 0)
(-5.08617 -3.64061 0)
(-3.13251 1.44247 0)
(1.44247 3.13251 0)
(3.13251 -1.44247 0)
(-1.44247 -3.13251 0)
(-1.60348 -4.18149 0)
(-4.18149 1.60348 0)
(1.60348 4.18149 0)
(4.18149 -1.60348 0)
(-0.349434 -0.65458 0)
(-0.65458 0.349434 0)
(0.349434 0.65458 0)
(0.65458 -0.349434 0)
(-3.26917 3.66473 0)
(3.66473 3.26917 0)
(3.26917 -3.66473 0)
(-3.66473 -3.26917 0)
(-1.27615 -5.24829 0)
(-5.24829 1.27615 0)
(1.27615 5.24829 0)
(5.24829 -1.27615 0)
(-0.276245 -0.666271 0)
(-0.666271 0.276245 0)
(0.276245 0.666271 0)
(0.666271 -0.276245 0)
(-1.25494 3.15811 0)
(3.15811 1.25494 0)
(1.25494 -3.15811 0)
(-3.15811 -1.25494 0)
(-3.27925 2.77316 0)
(2.77316 3.27925 0)
(3.27925 -2.77316 0)
(-2.77316 -3.27925 0)
(-2.98656 -3.63882 0)
(-3.63882 2.98656 0)
(2.98656 3.63882 0)
(3.63882 -2.98656 0)
(-5.84201 3.79173 0)
(3.79173 5.84201 0)
(5.84201 -3.79173 0)
(-3.79173 -5.84201 0)
(-3.75774 -5.93138 0)
(-5.93138 3.75774 0)
(3.75774 5.93138 0)
(5.93138 -3.75774 0)
(-2.50547 -2.16984 0)
(-2.16984 2.50547 0)
(2.50547 2.16984 0)
(2.16984 -2.50547 0)
(-3.04573 5.4162 0)
(5.4162 3.04573 0)
(3.04573 -5.4162 0)
(-5.4162 -3.04573 0)
(-4.55717 -1.51745 0)
(-1.51745 4.55717 0)
(4.55717 1.51745 0)
(1.51745 -4.55717 0)
(-2.81061 1.14789 0)
(1.14789 2.81061 0)
(2.81061 -1.14789 0)
(-1.14789 -2.81061 0)
(-0.707834 -3.96072 0)
(-3.96072 0.707834 0)
(0.707834 3.96072 0)
(3.96072 -0.707834 0)
(-2.60381 -2.16874 0)
(-2.16874 2.60381 0)
(2.60381 2.16874 0)
(2.16874 -2.60381 0)
(-1.72547 -0.0152674 0)
(-0.0152674 1.72547 0)
(1.72547 0.0152674 0)
(0.0152674 -1.72547 0)
(-1.39933 3.98437 0)
(3.98437 1.39933 0)
(1.39933 -3.98437 0)
(-3.98437 -1.39933 0)
(-1.30852 -5.31614 0)
(-5.31614 1.30852 0)
(1.30852 5.31614 0)
(5.31614 -1.30852 0)
(-4.94468 -0.416774 0)
(-0.416774 4.94468 0)
(4.94468 0.416774 0)
(0.416774 -4.94468 0)
(-4.45016 -3.42076 0)
(-3.42076 4.45016 0)
(4.45016 3.42076 0)
(3.42076 -4.45016 0)
(-4.06108 -1.07132 0)
(-1.07132 4.06108 0)
(4.06108 1.07132 0)
(1.07132 -4.06108 0)
(-0.764238 -4.01375 0)
(-4.01375 0.764238 0)
(0.764238 4.01375 0)
(4.01375 -0.764238 0)
(-3.3392 1.04466 0)
(1.04466 3.3392 0)
(3.3392 -1.04466 0)
(-1.04466 -3.3392 0)
(-1.58709 6.22573 0)
(6.22573 1.58709 0)
(1.58709 -6.22573 0)
(-6.22573 -1.58709 0)
(-1.61991 -4.09214 0)
(-4.09214 1.61991 0)
(1.61991 4.09214 0)
(4.09214 -1.61991 0)
(-5.0284 4.54347 0)
(4.54347 5.0284 0)
(5.0284 -4.54347 0)
(-4.54347 -5.0284 0)
(-5.22618 4.47922 0)
(4.47922 5.22618 0)
(5.22618 -4.47922 0)
(-4.47922 -5.22618 0)
(-5.22891 0.700472 0)
(0.700472 5.22891 0)
(5.22891 -0.700472 0)
(-0.700472 -5.22891 0)
(-0.872586 4.77523 0)
(4.77523 0.872586 0)
(0.872586 -4.77523 0)
(-4.77523 -0.872586 0)
(-1.34094 3.17433 0)
(3.17433 1.34094 0)
(1.34094 -3.17433 0)
(-3.17433 -1.34094 0)
(-2.95189 1.45095 0)
(1.45095 2.95189 0)
(2.95189 -1.45095 0)
(-1.45095 -2.95189 0)
(-4.6752 -4.93213 0)
(-4.93213 4.6752 0)
(4.6752 4.93213 0)
(4.93213 -4.6752 0)
(-3.73797 -1.00462 0)
(-1.00462 3.73797 0)
(3.73797 1.00462 0)
(1.00462 -3.73797 0)
(-3.71973 -0.906597 0)
(-0.906597 3.71973 0)
(3.71973 0.906597 0)
(0.906597 -3.71973 0)
(-2.34053 -0.312617 0)
(-0.312617 2.34053 0)
(2.34053 0.312617 0)
(0.312617 -2.34053 0)
(-3.91325 -1.00996 0)
(-1.00996 3.91325 0)
(3.91325 1.00996 0)
(1.00996 -3.91325 0)
(-2.58454 4.99295 0)
(4.99295 2.58454 0)
(2.58454 -4.99295 0)
(-4.99295 -2.58454 0)
(-2.24485 -4.97019 0)
(-4.97019 2.24485 0)
(2.24485 4.97019 0)
(4.97019 -2.24485 0)
(-2.41307 -0.346847 0)
(-0.346847 2.41307 0)
(2.41307 0.346847 0)
(0.346847 -2.41307 0)
(-3.45546 -4.11634 0)
(-4.11634 3.45546 0)
(3.45546 4.11634 0)
(4.11634 -3.45546 0)
(-6.07242 -1.99306 0)
(-1.99306 6.07242 0)
(6.07242 1.99306 0)
(1.99306 -6.07242 0)
(-4.58465 -3.84024 0)
(-4.48658 -3.84523 0)
(-3.86177 4.47825 0)
(4.47825 3.86177 0)
(3.86177 -4.47825 0)
(-2.28084 3.55272 0)
(3.55272 2.28084 0)
(2.28084 -3.55272 0)
(-3.55272 -2.28084 0)
(-1.53842 3.05391 0)
(3.05391 1.53842 0)
(1.53842 -3.05391 0)
(-3.05391 -1.53842 0)
(-1.61872 3.0196 0)
(3.0196 1.61872 0)
(1.61872 -3.0196 0)
(-3.0196 -1.61872 0)
(-3.84991 2.24625 0)
(2.24625 3.84991 0)
(3.84991 -2.24625 0)
(-2.24625 -3.84991 0)
(-5.66759 -4.22289 0)
(-4.22289 5.66759 0)
(5.66759 4.22289 0)
(4.22289 -5.66759 0)
(-5.74447 -3.41751 0)
(-3.41751 5.74447 0)
(5.74447 3.41751 0)
(3.41751 -5.74447 0)
(-5.59632 2.87613 0)
(2.87613 5.59632 0)
(5.59632 -2.87613 0)
(-2.87613 -5.59632 0)
(-1.39894 3.13024 0)
(3.13024 1.39894 0)
(1.39894 -3.13024 0)
(-3.13024 -1.39894 0)
(-4.58383 -5.66466 0)
(-5.66466 4.58383 0)
(4.58383 5.66466 0)
(5.66466 -4.58383 0)
(-2.87972 -5.34571 0)
(-5.34571 2.87972 0)
(2.87972 5.34571 0)
(5.34571 -2.87972 0)
(-4.40673 3.20486 0)
(3.20486 4.40673 0)
(4.40673 -3.20486 0)
(-3.20486 -4.40673 0)
(-3.24492 -0.856781 0)
(-0.856781 3.24492 0)
(3.24492 0.856781 0)
(0.856781 -3.24492 0)
(-5.95833 -4.51033 0)
(-4.51033 5.95833 0)
(5.95833 4.51033 0)
(4.51033 -5.95833 0)
(-3.79417 -1.80466 0)
(-1.80466 3.79417 0)
(3.79417 1.80466 0)
(1.80466 -3.79417 0)
(-3.64081 -2.49714 0)
(-2.49714 3.64081 0)
(3.64081 2.49714 0)
(2.49714 -3.64081 0)
(-4.62063 -3.98765 0)
(-1.43732 -1.11569 0)
(-1.11569 1.43732 0)
(1.43732 1.11569 0)
(1.11569 -1.43732 0)
(-1.80143 -2.05891 0)
(-2.05891 1.80143 0)
(1.80143 2.05891 0)
(2.05891 -1.80143 0)
(-1.51115 -1.09643 0)
(-1.09643 1.51115 0)
(1.51115 1.09643 0)
(1.09643 -1.51115 0)
(-4.67641 0.208855 0)
(0.208855 4.67641 0)
(4.67641 -0.208855 0)
(-0.208855 -4.67641 0)
(-4.52263 3.37805 0)
(3.37805 4.52263 0)
(4.52263 -3.37805 0)
(-3.37805 -4.52263 0)
(-3.51562 -0.247651 0)
(-0.247651 3.51562 0)
(3.51562 0.247651 0)
(0.247651 -3.51562 0)
(-4.84114 0.591771 0)
(0.591771 4.84114 0)
(4.84114 -0.591771 0)
(-0.591771 -4.84114 0)
(-4.81008 0.668472 0)
(0.668472 4.81008 0)
(4.81008 -0.668472 0)
(-0.668472 -4.81008 0)
(-4.6789 4.00667 0)
(4.00667 4.6789 0)
(4.6789 -4.00667 0)
(-4.00667 -4.6789 0)
(-3.67912 0.202745 0)
(0.202745 3.67912 0)
(3.67912 -0.202745 0)
(-0.202745 -3.67912 0)
(-2.9443 -2.29873 0)
(-2.29873 2.9443 0)
(2.9443 2.29873 0)
(2.29873 -2.9443 0)
(-0.48508 -0.468247 0)
(-0.468247 0.48508 0)
(0.48508 0.468247 0)
(0.468247 -0.48508 0)
(-1.01646 4.39411 0)
(4.39411 1.01646 0)
(1.01646 -4.39411 0)
(-4.39411 -1.01646 0)
(-3.71982 -4.01089 0)
(-4.01089 3.71982 0)
(3.71982 4.01089 0)
(4.01089 -3.71982 0)
(-1.8347 6.01164 0)
(6.01164 1.8347 0)
(1.8347 -6.01164 0)
(-6.01164 -1.8347 0)
(-6.00008 -1.92373 0)
(-1.92373 6.00008 0)
(6.00008 1.92373 0)
(1.92373 -6.00008 0)
(-4.64979 -3.90785 0)
(-2.3214 -4.93421 0)
(-4.93421 2.3214 0)
(2.3214 4.93421 0)
(4.93421 -2.3214 0)
(-5.82404 -3.39828 0)
(-3.39828 5.82404 0)
(5.82404 3.39828 0)
(3.39828 -5.82404 0)
(-6.16784 -2.41216 0)
(-2.41216 6.16784 0)
(6.16784 2.41216 0)
(2.41216 -6.16784 0)
(-1.56198 4.75138 0)
(4.75138 1.56198 0)
(1.56198 -4.75138 0)
(-4.75138 -1.56198 0)
(-2.43881 0.507114 0)
(0.507114 2.43881 0)
(2.43881 -0.507114 0)
(-0.507114 -2.43881 0)
(-2.79798 -3.67931 0)
(-3.67931 2.79798 0)
(2.79798 3.67931 0)
(3.67931 -2.79798 0)
(-2.28771 -4.59057 0)
(-4.59057 2.28771 0)
(2.28771 4.59057 0)
(4.59057 -2.28771 0)
(-3.56643 -0.472719 0)
(-0.472719 3.56643 0)
(3.56643 0.472719 0)
(0.472719 -3.56643 0)
(-2.11868 -1.10932 0)
(-1.10932 2.11868 0)
(2.11868 1.10932 0)
(1.10932 -2.11868 0)
(-0.969977 -4.499 0)
(-4.499 0.969977 0)
(0.969977 4.499 0)
(4.499 -0.969977 0)
(-3.89943 4.73535 0)
(4.73535 3.89943 0)
(3.89943 -4.73535 0)
(-4.49375 3.2073 0)
(3.2073 4.49375 0)
(4.49375 -3.2073 0)
(-3.2073 -4.49375 0)
(-4.54996 3.30231 0)
(3.30231 4.54996 0)
(4.54996 -3.30231 0)
(-3.30231 -4.54996 0)
(-5.99782 4.81878 0)
(4.81878 5.99782 0)
(5.99782 -4.81878 0)
(-4.81878 -5.99782 0)
(-3.14773 -2.47664 0)
(-2.47664 3.14773 0)
(3.14773 2.47664 0)
(2.47664 -3.14773 0)
(-4.23022 4.40297 0)
(4.40297 4.23022 0)
(4.23022 -4.40297 0)
(-4.40404 -4.23195 0)
(-3.97434 4.77002 0)
(4.77002 3.97434 0)
(3.97434 -4.77002 0)
(-4.47619 1.15747 0)
(1.15747 4.47619 0)
(4.47619 -1.15747 0)
(-1.15747 -4.47619 0)
(-4.90284 -2.68957 0)
(-2.68957 4.90284 0)
(4.90284 2.68957 0)
(2.68957 -4.90284 0)
(-3.45602 0.663742 0)
(0.663742 3.45602 0)
(3.45602 -0.663742 0)
(-0.663742 -3.45602 0)
(-3.53878 0.677701 0)
(0.677701 3.53878 0)
(3.53878 -0.677701 0)
(-0.677701 -3.53878 0)
(-3.61579 5.41495 0)
(5.41495 3.61579 0)
(3.61579 -5.41495 0)
(-5.41497 -3.61582 0)
(-2.38056 2.03571 0)
(2.03571 2.38056 0)
(2.38056 -2.03571 0)
(-2.03571 -2.38056 0)
(-4.74969 2.81631 0)
(2.81631 4.74969 0)
(4.74969 -2.81631 0)
(-2.81631 -4.74969 0)
(-6.17073 2.66494 0)
(2.66494 6.17073 0)
(6.17073 -2.66494 0)
(-2.66494 -6.17073 0)
(-3.38042 -2.36782 0)
(-2.36782 3.38042 0)
(3.38042 2.36782 0)
(2.36782 -3.38042 0)
(-1.02845 3.42796 0)
(3.42796 1.02845 0)
(1.02845 -3.42796 0)
(-3.42796 -1.02845 0)
(-4.8805 -2.16715 0)
(-2.16715 4.8805 0)
(4.8805 2.16715 0)
(2.16715 -4.8805 0)
(-3.79058 1.02684 0)
(1.02684 3.79058 0)
(3.79058 -1.02684 0)
(-3.73382 1.09369 0)
(1.09369 3.73382 0)
(3.73382 -1.09369 0)
(-1.02684 -3.79058 0)